# Lammps Data File

   14734 atoms
       3 atom types
    7156 bonds
    3578 angles

       1 bond types 

       1 angle types 

    -200.000     200.000 xlo xhi
    -200.000     200.000 ylo yhi
    -200.000     200.000 zlo zhi

Masses

       1       1.000
       2       1.000
       3       1.000


Bond Coeffs

       1      10.0000       6.9992

Angle Coeffs

       1      10.0000     180.0000

Atoms

       1       1       2       0.000       3.270       0.000     107.342
       2       1       2       0.000       3.484       0.000     114.339
       3       1       1       0.000       3.697       0.000     121.335
       4       1       2       0.000      -4.688       3.178     107.242
       5       1       2       0.000      -4.993       3.385     114.232
       6       1       1       0.000      -5.299       3.592     121.223
       7       1       2       0.000      -4.688      -5.608     107.143
       8       1       2       0.000      -4.994      -5.974     114.126
       9       1       1       0.000      -5.299      -6.339     121.110
      10       1       2       0.000       3.705      -7.813     107.043
      11       1       2       0.000       3.946      -8.322     114.020
      12       1       1       0.000       4.188      -8.832     120.998
      13       1       2       0.000       9.669      -1.611     106.943
      14       1       2       0.000      10.299      -1.716     113.914
      15       1       1       0.000      10.930      -1.821     120.885
      16       1       2       0.000       8.395       6.849     106.844
      17       1       2       0.000       8.942       7.295     113.808
      18       1       1       0.000       9.489       7.742     120.772
      19       1       2       0.000       1.386      11.694     106.744
      20       1       2       0.000       1.476      12.456     113.702
      21       1       1       0.000       1.567      13.218     120.660
      22       1       2       0.000      -7.026      10.514     106.644
      23       1       2       0.000      -7.484      11.200     113.596
      24       1       1       0.000      -7.942      11.885     120.547
      25       1       2       0.000     -12.762       4.276     106.545
      26       1       2       0.000     -13.594       4.554     113.490
      27       1       1       0.000     -14.426       4.833     120.434
      28       1       2       0.000     -13.610      -4.141     106.445
      29       1       2       0.000     -14.497      -4.411     113.384
      30       1       1       0.000     -15.384      -4.680     120.322
      31       1       2       0.000      -9.520     -11.530     106.346
      32       1       2       0.000     -10.140     -12.282     113.277
      33       1       1       0.000     -10.761     -13.034     120.209
      34       1       2       0.000      -2.080     -15.506     106.246
      35       1       2       0.000      -2.215     -16.516     113.171
      36       1       1       0.000      -2.351     -17.527     120.097
      37       1       2       0.000       6.334     -15.027     106.146
      38       1       2       0.000       6.746     -16.006     113.065
      39       1       1       0.000       7.159     -16.985     119.984
      40       1       2       0.000      13.371     -10.405     106.047
      41       1       2       0.000      14.243     -11.083     112.959
      42       1       1       0.000      15.114     -11.762     119.871
      43       1       2       0.000      17.302      -2.968     105.947
      44       1       2       0.000      18.430      -3.161     112.853
      45       1       1       0.000      19.558      -3.354     119.759
      46       1       2       0.000      17.311       5.439     105.848
      47       1       2       0.000      18.440       5.794     112.747
      48       1       1       0.000      19.568       6.148     119.646
      49       1       2       0.000      13.525      12.940     105.748
      50       1       2       0.000      14.406      13.783     112.641
      51       1       1       0.000      15.288      14.626     119.534
      52       1       2       0.000       6.837      18.018     105.648
      53       1       2       0.000       7.283      19.193     112.535
      54       1       1       0.000       7.728      20.367     119.421
      55       1       2       0.000      -1.373      19.763     105.549
      56       1       2       0.000      -1.463      21.051     112.429
      57       1       1       0.000      -1.552      22.339     119.308
      58       1       2       0.000      -9.564      17.944     105.449
      59       1       2       0.000     -10.187      19.114     112.322
      60       1       1       0.000     -10.810      20.284     119.196
      61       1       2       0.000     -16.316      12.971     105.349
      62       1       2       0.000     -17.380      13.816     112.216
      63       1       1       0.000     -18.444      14.662     119.083
      64       1       2       0.000     -20.555       5.738     105.250
      65       1       2       0.000     -21.895       6.112     112.110
      66       1       1       0.000     -23.235       6.485     118.971
      67       1       2       0.000     -21.675      -2.569     105.150
      68       1       2       0.000     -23.088      -2.736     112.004
      69       1       1       0.000     -24.501      -2.903     118.858
      70       1       2       0.000     -19.577     -10.680     105.051
      71       1       2       0.000     -20.854     -11.377     111.898
      72       1       1       0.000     -22.130     -12.073     118.745
      73       1       2       0.000     -14.631     -17.441     104.951
      74       1       2       0.000     -15.585     -18.578     111.792
      75       1       1       0.000     -16.539     -19.715     118.633
      76       1       2       0.000      -7.574     -21.950     104.851
      77       1       2       0.000      -8.068     -23.381     111.686
      78       1       1       0.000      -8.562     -24.811     118.520
      79       1       2       0.000       0.622     -23.657     104.752
      80       1       2       0.000       0.663     -25.199     111.580
      81       1       1       0.000       0.703     -26.741     118.408
      82       1       2       0.000       8.898     -22.399     104.652
      83       1       2       0.000       9.478     -23.860     111.473
      84       1       1       0.000      10.058     -25.320     118.295
      85       1       2       0.000      16.241     -18.384     104.552
      86       1       2       0.000      17.300     -19.583     111.367
      87       1       1       0.000      18.358     -20.781     118.182
      88       1       2       0.000      21.803     -12.133     104.453
      89       1       2       0.000      23.224     -12.923     111.261
      90       1       1       0.000      24.645     -13.714     118.070
      91       1       2       0.000      24.981      -4.394     104.353
      92       1       2       0.000      26.610      -4.680     111.155
      93       1       1       0.000      28.238      -4.966     117.957
      94       1       2       0.000      25.466       3.957     104.254
      95       1       2       0.000      27.125       4.215     111.049
      96       1       1       0.000      28.785       4.473     117.844
      97       1       2       0.000      23.247      12.021     104.154
      98       1       2       0.000      24.762      12.805     110.943
      99       1       1       0.000      26.277      13.588     117.732
     100       1       2       0.000      18.595      18.971     104.054
     101       1       2       0.000      19.807      20.207     110.837
     102       1       1       0.000      21.019      21.444     117.619
     103       1       2       0.000      12.012      24.126     103.955
     104       1       2       0.000      12.795      25.699     110.731
     105       1       1       0.000      13.578      27.272     117.507
     106       1       2       0.000       4.166      27.013     103.855
     107       1       2       0.000       4.438      28.774     110.625
     108       1       1       0.000       4.710      30.535     117.394
     109       1       2       0.000      -4.184      27.391     103.755
     110       1       2       0.000      -4.457      29.176     110.518
     111       1       1       0.000      -4.730      30.962     117.281
     112       1       2       0.000     -12.266      25.258     103.656
     113       1       2       0.000     -13.066      26.904     110.412
     114       1       1       0.000     -13.865      28.551     117.169
     115       1       2       0.000     -19.360      20.839     103.556
     116       1       2       0.000     -20.622      22.197     110.306
     117       1       1       0.000     -21.884      23.556     117.056
     118       1       2       0.000     -24.861      14.548     103.457
     119       1       2       0.000     -26.481      15.496     110.200
     120       1       1       0.000     -28.101      16.445     116.944
     121       1       2       0.000     -28.321       6.943     103.357
     122       1       2       0.000     -30.167       7.395     110.094
     123       1       1       0.000     -32.013       7.848     116.831
     124       1       2       0.000     -29.481      -1.332     103.257
     125       1       2       0.000     -31.402      -1.418     109.988
     126       1       1       0.000     -33.324      -1.505     116.718
     127       1       2       0.000     -28.272      -9.598     103.158
     128       1       2       0.000     -30.115     -10.224     109.882
     129       1       1       0.000     -31.958     -10.849     116.606
     130       1       2       0.000     -24.819     -17.205     103.058
     131       1       2       0.000     -26.437     -18.326     109.776
     132       1       1       0.000     -28.055     -19.448     116.493
     133       1       2       0.000     -19.413     -23.572     102.959
     134       1       2       0.000     -20.678     -25.109     109.670
     135       1       1       0.000     -21.944     -26.645     116.381
     136       1       2       0.000     -12.483     -28.235     102.859
     137       1       2       0.000     -13.296     -30.075     109.563
     138       1       1       0.000     -14.110     -31.915     116.268
     139       1       2       0.000      -4.557     -30.866     102.759
     140       1       2       0.000      -4.854     -32.878     109.457
     141       1       1       0.000      -5.151     -34.890     116.155
     142       1       2       0.000       3.783     -31.299     102.660
     143       1       2       0.000       4.030     -33.340     109.351
     144       1       1       0.000       4.277     -35.380     116.043
     145       1       2       0.000      11.944     -29.526     102.560
     146       1       2       0.000      12.722     -31.450     109.245
     147       1       1       0.000      13.501     -33.375     115.930
     148       1       2       0.000      19.361     -25.690     102.460
     149       1       2       0.000      20.623     -27.365     109.139
     150       1       1       0.000      21.885     -29.039     115.818
     151       1       2       0.000      25.539     -20.074     102.361
     152       1       2       0.000      27.204     -21.383     109.033
     153       1       1       0.000      28.869     -22.691     115.705
     154       1       2       0.000      30.081     -13.068     102.261
     155       1       2       0.000      32.041     -13.920     108.927
     156       1       1       0.000      34.002     -14.772     115.592
     157       1       2       0.000      32.704      -5.142     102.162
     158       1       2       0.000      34.836      -5.478     108.821
     159       1       1       0.000      36.967      -5.813     115.480
     160       1       2       0.000      33.259       3.187     102.062
     161       1       2       0.000      35.427       3.395     108.715
     162       1       1       0.000      37.595       3.603     115.367
     163       1       2       0.000      31.731      11.394     101.962
     164       1       2       0.000      33.799      12.137     108.608
     165       1       1       0.000      35.867      12.879     115.255
     166       1       2       0.000      28.231      18.972     101.863
     167       1       2       0.000      30.072      20.209     108.502
     168       1       1       0.000      31.912      21.446     115.142
     169       1       2       0.000      22.991      25.469     101.763
     170       1       2       0.000      24.489      27.129     108.396
     171       1       1       0.000      25.988      28.789     115.029
     172       1       2       0.000      16.336      30.507     101.663
     173       1       2       0.000      17.401      32.495     108.290
     174       1       1       0.000      18.465      34.484     114.917
     175       1       2       0.000       8.668      33.803     101.564
     176       1       2       0.000       9.233      36.006     108.184
     177       1       1       0.000       9.798      38.209     114.804
     178       1       2       0.000       0.437      35.182     101.464
     179       1       2       0.000       0.466      37.476     108.078
     180       1       1       0.000       0.494      39.769     114.691
     181       1       2       0.000      -7.887      34.583     101.365
     182       1       2       0.000      -8.401      36.837     107.972
     183       1       1       0.000      -8.915      39.091     114.579
     184       1       2       0.000     -15.839      32.054     101.265
     185       1       2       0.000     -16.872      34.144     107.866
     186       1       1       0.000     -17.904      36.233     114.466
     187       1       2       0.000     -22.988      27.750     101.165
     188       1       2       0.000     -24.487      29.559     107.759
     189       1       1       0.000     -25.985      31.368     114.354
     190       1       2       0.000     -28.955      21.916     101.066
     191       1       2       0.000     -30.842      23.345     107.653
     192       1       1       0.000     -32.729      24.773     114.241
     193       1       2       0.000     -33.430      14.874     100.966
     194       1       2       0.000     -35.609      15.844     107.547
     195       1       1       0.000     -37.788      16.813     114.128
     196       1       2       0.000     -36.193       7.001     100.866
     197       1       2       0.000     -38.552       7.457     107.441
     198       1       1       0.000     -40.911       7.914     114.016
     199       1       2       0.000     -37.113      -1.292     100.767
     200       1       2       0.000     -39.532      -1.376     107.335
     201       1       1       0.000     -41.951      -1.460     113.903
     202       1       2       0.000     -36.157      -9.580     100.667
     203       1       2       0.000     -38.513     -10.204     107.229
     204       1       1       0.000     -40.870     -10.829     113.791
     205       1       2       0.000     -33.386     -17.450     100.568
     206       1       2       0.000     -35.562     -18.587     107.123
     207       1       1       0.000     -37.739     -19.724     113.678
     208       1       2       0.000     -28.951     -24.515     100.468
     209       1       2       0.000     -30.838     -26.113     107.017
     210       1       1       0.000     -32.725     -27.711     113.565
     211       1       2       0.000     -23.077     -30.440     100.368
     212       1       2       0.000     -24.582     -32.424     106.911
     213       1       1       0.000     -26.086     -34.408     113.453
     214       1       2       0.000     -16.058     -34.947     100.269
     215       1       2       0.000     -17.104     -37.225     106.804
     216       1       1       0.000     -18.151     -39.503     113.340
     217       1       2       0.000      -8.231     -37.833     100.169
     218       1       2       0.000      -8.768     -40.299     106.698
     219       1       1       0.000      -9.304     -42.766     113.228
     220       1       2       0.000       0.032     -38.975     100.069
     221       1       2       0.000       0.034     -41.516     106.592
     222       1       1       0.000       0.036     -44.056     113.115
     223       1       2       0.000       8.349     -38.331      99.970
     224       1       2       0.000       8.893     -40.830     106.486
     225       1       1       0.000       9.437     -43.328     113.002
     226       1       2       0.000      16.341     -35.943      99.870
     227       1       2       0.000      17.406     -38.286     106.380
     228       1       1       0.000      18.471     -40.628     112.890
     229       1       2       0.000      23.652     -31.928      99.771
     230       1       2       0.000      25.193     -34.009     106.274
     231       1       1       0.000      26.735     -36.090     112.777
     232       1       2       0.000      29.963     -26.474      99.671
     233       1       2       0.000      31.916     -28.200     106.168
     234       1       1       0.000      33.869     -29.926     112.665
     235       1       2       0.000      35.004     -19.830      99.571
     236       1       2       0.000      37.286     -21.122     106.062
     237       1       1       0.000      39.567     -22.415     112.552
     238       1       2       0.000      38.566     -12.288      99.472
     239       1       2       0.000      41.080     -13.089     105.956
     240       1       1       0.000      43.594     -13.890     112.439
     241       1       2       0.000      40.506      -4.177      99.372
     242       1       2       0.000      43.146      -4.449     105.849
     243       1       1       0.000      45.786      -4.721     112.327
     244       1       2       0.000      40.751       4.159      99.273
     245       1       2       0.000      43.407       4.430     105.743
     246       1       1       0.000      46.063       4.702     112.214
     247       1       2       0.000      39.302      12.372      99.173
     248       1       2       0.000      41.864      13.179     105.637
     249       1       1       0.000      44.425      13.985     112.101
     250       1       2       0.000      36.228      20.125      99.073
     251       1       2       0.000      38.589      21.436     105.531
     252       1       1       0.000      40.951      22.748     111.989
     253       1       2       0.000      31.663      27.104      98.974
     254       1       2       0.000      33.727      28.871     105.425
     255       1       1       0.000      35.791      30.637     111.876
     256       1       2       0.000      25.800      33.034      98.874
     257       1       2       0.000      27.482      35.187     105.319
     258       1       1       0.000      29.164      37.340     111.764
     259       1       2       0.000      18.879      37.685      98.774
     260       1       2       0.000      20.109      40.142     105.213
     261       1       1       0.000      21.340      42.598     111.651
     262       1       2       0.000      11.177      40.882      98.675
     263       1       2       0.000      11.905      43.547     105.107
     264       1       1       0.000      12.634      46.211     111.538
     265       1       2       0.000       2.998      42.508      98.575
     266       1       2       0.000       3.194      45.279     105.001
     267       1       1       0.000       3.389      48.049     111.426
     268       1       2       0.000      -5.340      42.509      98.476
     269       1       2       0.000      -5.688      45.280     104.894
     270       1       1       0.000      -6.036      48.051     111.313
     271       1       2       0.000     -13.521      40.894      98.376
     272       1       2       0.000     -14.402      43.560     104.788
     273       1       1       0.000     -15.283      46.225     111.201
     274       1       2       0.000     -21.236      37.733      98.276
     275       1       2       0.000     -22.621      40.192     104.682
     276       1       1       0.000     -24.005      42.652     111.088
     277       1       2       0.000     -28.202      33.150      98.177
     278       1       2       0.000     -30.041      35.311     104.576
     279       1       1       0.000     -31.879      37.472     110.975
     280       1       2       0.000     -34.166      27.323      98.077
     281       1       2       0.000     -36.393      29.104     104.470
     282       1       1       0.000     -38.620      30.885     110.863
     283       1       2       0.000     -38.915      20.470      97.977
     284       1       2       0.000     -41.452      21.804     104.364
     285       1       1       0.000     -43.988      23.138     110.750
     286       1       2       0.000     -42.284      12.843      97.878
     287       1       2       0.000     -45.040      13.680     104.258
     288       1       1       0.000     -47.796      14.517     110.638
     289       1       2       0.000     -44.160       4.719      97.778
     290       1       2       0.000     -47.039       5.027     104.152
     291       1       1       0.000     -49.917       5.335     110.525
     292       1       2       0.000     -44.484      -3.612      97.679
     293       1       2       0.000     -47.383      -3.847     104.045
     294       1       1       0.000     -50.283      -4.082     110.412
     295       1       2       0.000     -43.252     -11.857      97.579
     296       1       2       0.000     -46.071     -12.630     103.939
     297       1       1       0.000     -48.890     -13.403     110.300
     298       1       2       0.000     -40.514     -19.732      97.479
     299       1       2       0.000     -43.155     -21.018     103.833
     300       1       1       0.000     -45.796     -22.304     110.187
     301       1       2       0.000     -36.372     -26.967      97.380
     302       1       2       0.000     -38.743     -28.725     103.727
     303       1       1       0.000     -41.114     -30.483     110.075
     304       1       2       0.000     -30.973     -33.320      97.280
     305       1       2       0.000     -32.992     -35.492     103.621
     306       1       1       0.000     -35.011     -37.664     109.962
     307       1       2       0.000     -24.505     -38.580      97.180
     308       1       2       0.000     -26.103     -41.095     103.515
     309       1       1       0.000     -27.700     -43.609     109.849
     310       1       2       0.000     -17.189     -42.577      97.081
     311       1       2       0.000     -18.310     -45.352     103.409
     312       1       1       0.000     -19.430     -48.127     109.737
     313       1       2       0.000      -9.271     -45.185      96.981
     314       1       2       0.000      -9.876     -48.130     103.303
     315       1       1       0.000     -10.480     -51.075     109.624
     316       1       2       0.000      -1.013     -46.324      96.882
     317       1       2       0.000      -1.079     -49.343     103.197
     318       1       1       0.000      -1.145     -52.363     109.511
     319       1       2       0.000       7.315     -45.964      96.782
     320       1       2       0.000       7.792     -48.960     103.090
     321       1       1       0.000       8.269     -51.956     109.399
     322       1       2       0.000      15.446     -44.124      96.682
     323       1       2       0.000      16.453     -47.000     102.984
     324       1       1       0.000      17.459     -49.876     109.286
     325       1       2       0.000      23.120     -40.868      96.583
     326       1       2       0.000      24.627     -43.532     102.878
     327       1       1       0.000      26.134     -46.196     109.174
     328       1       2       0.000      30.097     -36.306      96.483
     329       1       2       0.000      32.058     -38.673     102.772
     330       1       1       0.000      34.020     -41.040     109.061
     331       1       2       0.000      36.161     -30.587      96.384
     332       1       2       0.000      38.518     -32.581     102.666
     333       1       1       0.000      40.875     -34.575     108.948
     334       1       2       0.000      41.128     -23.893      96.284
     335       1       2       0.000      43.809     -25.450     102.560
     336       1       1       0.000      46.490     -27.008     108.836
     337       1       2       0.000      44.849     -16.434      96.184
     338       1       2       0.000      47.773     -17.505     102.454
     339       1       1       0.000      50.696     -18.577     108.723
     340       1       2       0.000      47.217      -8.442      96.085
     341       1       2       0.000      50.295      -8.992     102.348
     342       1       1       0.000      53.372      -9.543     108.611
     343       1       2       0.000      48.164      -0.161      95.985
     344       1       2       0.000      51.304      -0.171     102.242
     345       1       1       0.000      54.443      -0.182     108.498
     346       1       2       0.000      47.669       8.160      95.885
     347       1       2       0.000      50.777       8.692     102.135
     348       1       1       0.000      53.884       9.224     108.385
     349       1       2       0.000      45.752      16.272      95.786
     350       1       2       0.000      48.735      17.332     102.029
     351       1       1       0.000      51.717      18.393     108.273
     352       1       2       0.000      42.476      23.936      95.686
     353       1       2       0.000      45.245      25.496     101.923
     354       1       1       0.000      48.013      27.056     108.160
     355       1       2       0.000      37.941      30.929      95.587
     356       1       2       0.000      40.414      32.946     101.817
     357       1       1       0.000      42.888      34.962     108.048
     358       1       2       0.000      32.286      37.052      95.487
     359       1       2       0.000      34.390      39.467     101.711
     360       1       1       0.000      36.495      41.882     107.935
     361       1       2       0.000      25.677      42.130      95.387
     362       1       2       0.000      27.350      44.876     101.605
     363       1       1       0.000      29.024      47.622     107.822
     364       1       2       0.000      18.307      46.023      95.288
     365       1       2       0.000      19.500      49.023     101.499
     366       1       1       0.000      20.693      52.022     107.710
     367       1       2       0.000      10.388      48.624      95.188
     368       1       2       0.000      11.065      51.793     101.393
     369       1       1       0.000      11.743      54.963     107.597
     370       1       2       0.000       2.147      49.865      95.088
     371       1       2       0.000       2.287      53.116     101.286
     372       1       1       0.000       2.426      56.366     107.485
     373       1       2       0.000      -6.187      49.717      94.989
     374       1       2       0.000      -6.590      52.958     101.180
     375       1       1       0.000      -6.993      56.199     107.372
     376       1       2       0.000     -14.380      48.190      94.889
     377       1       2       0.000     -15.317      51.331     101.074
     378       1       1       0.000     -16.254      54.472     107.259
     379       1       2       0.000     -22.208      45.329      94.790
     380       1       2       0.000     -23.655      48.284     100.968
     381       1       1       0.000     -25.103      51.238     107.147
     382       1       2       0.000     -29.458      41.219      94.690
     383       1       2       0.000     -31.378      43.906     100.862
     384       1       1       0.000     -33.298      46.592     107.034
     385       1       2       0.000     -35.936      35.975      94.590
     386       1       2       0.000     -38.278      38.320     100.756
     387       1       1       0.000     -40.621      40.665     106.921
     388       1       2       0.000     -41.470      29.744      94.491
     389       1       2       0.000     -44.173      31.683     100.650
     390       1       1       0.000     -46.876      33.622     106.809
     391       1       2       0.000     -45.916      22.695      94.391
     392       1       2       0.000     -48.908      24.174     100.544
     393       1       1       0.000     -51.901      25.653     106.696
     394       1       2       0.000     -49.159      15.018      94.291
     395       1       2       0.000     -52.363      15.996     100.438
     396       1       1       0.000     -55.567      16.975     106.584
     397       1       2       0.000     -51.118       6.917      94.192
     398       1       2       0.000     -54.450       7.368     100.331
     399       1       1       0.000     -57.782       7.819     106.471
     400       1       2       0.000     -51.746      -1.393      94.092
     401       1       2       0.000     -55.119      -1.484     100.225
     402       1       1       0.000     -58.492      -1.574     106.358
     403       1       2       0.000     -51.033      -9.696      93.993
     404       1       2       0.000     -54.359     -10.328     100.119
     405       1       1       0.000     -57.686     -10.960     106.246