# Lammps Data File

      74 atoms
      74 atom types
    2701 bonds

    2701 bond types 

    -200.000     200.000 xlo xhi
    -200.000     200.000 ylo yhi
    -200.000     200.000 zlo zhi

Masses

       1     287.318
       2     339.392
       3     338.450
       4     370.452
       5     301.285
       6     356.425
       7     286.331
       8     356.425
       9     311.381
      10     333.345
      11     301.285
      12     331.430
      13     297.354
      14     347.417
      15     315.326
      16     358.456
      17     368.480
      18     267.328
      19     333.330
      20     372.410
      21     319.318
      22     342.398
      23     369.421
      24     313.397
      25     219.111
      26     372.381
      27     390.445
      28     284.258
      29     242.234
      30     342.355
      31     371.396
      32     384.435
      33     298.385
      34     301.285
      35     287.377
      36     268.272
      37     313.313
      38     259.234
      39     366.464
      40     299.327
      41     285.329
      42     261.220
      43     314.327
      44     376.401
      45     301.285
      46     342.384
      47     299.269
      48     340.382
      49     301.285
      50     286.288
      51     313.310
      52     333.387
      53     335.302
      54     383.451
      55     314.371
      56     285.300
      57     315.326
      58     281.312
      59     302.262
      60     309.409
      61     331.387
      62     431.495
      63     343.383
      64     325.365
      65     369.421
      66     342.384
      67     257.232
      68     315.370
      69     255.274
      70     355.434
      71     390.483
      72     384.435
      73     369.464
      74     170.154


Bond Coeffs

       1      10.0000       8.0413
       2      10.0000      15.4080
       3      10.0000      18.2729
       4      10.0000      21.4067
       5      10.0000      25.4097
       6      10.0000      29.3863
       7      10.0000      30.2272
       8      10.0000      27.9646
       9      10.0000      23.6617
      10      10.0000      19.7165
      11      10.0000      16.1201
      12      10.0000      11.9880
      13      10.0000      10.5139
      14      10.0000      12.2124
      15      10.0000      14.6929
      16      10.0000      18.6694
      17      10.0000      22.8859
      18      10.0000      24.9835
      19      10.0000      24.5379
      20      10.0000      24.1982
      21      10.0000      23.7734
      22      10.0000      24.0629
      23      10.0000      25.7602
      24      10.0000      28.9086
      25      10.0000      32.1185
      26      10.0000      29.1551
      27      10.0000      22.7184
      28      10.0000      25.1366
      29      10.0000      29.4601
      30      10.0000      24.4463
      31      10.0000      20.2565
      32      10.0000      15.8500
      33      10.0000      17.3312
      34      10.0000      13.7105
      35      10.0000       8.9334
      36      10.0000       8.0651
      37      10.0000      10.7512
      38      10.0000      14.9916
      39      10.0000      16.1259
      40      10.0000      17.2623
      41      10.0000      19.1482
      42      10.0000      21.4573
      43      10.0000      24.5464
      44      10.0000      28.3223
      45      10.0000      33.5290
      46      10.0000      42.0441
      47      10.0000      49.1886
      48      10.0000      49.6461
      49      10.0000      56.2596
      50      10.0000      60.5781
      51      10.0000      64.0127
      52      10.0000      61.2956
      53      10.0000      58.6375
      54      10.0000      56.9140
      55      10.0000      55.0679
      56      10.0000      51.0557
      57      10.0000      57.0039
      58      10.0000      58.3633
      59      10.0000      58.0303
      60      10.0000      58.1528
      61      10.0000      57.8617
      62      10.0000      58.2141
      63      10.0000      64.8222
      64      10.0000      65.6952
      65      10.0000      66.8243
      66      10.0000      70.0782
      67      10.0000      69.0735
      68      10.0000      65.5439
      69      10.0000      68.3146
      70      10.0000      71.0295
      71      10.0000      73.6615
      72      10.0000      76.2611
      73      10.0000      83.1397
      74      10.0000       7.6054
      75      10.0000      10.9313
      76      10.0000      14.5736
      77      10.0000      18.9795
      78      10.0000      23.1053
      79      10.0000      25.1799
      80      10.0000      22.6170
      81      10.0000      18.7194
      82      10.0000      15.1717
      83      10.0000      12.3892
      84      10.0000      11.8578
      85      10.0000      12.8642
      86      10.0000      11.6037
      87      10.0000      11.6115
      88      10.0000      14.3081
      89      10.0000      19.3258
      90      10.0000      22.3797
      91      10.0000      23.1604
      92      10.0000      24.0160
      93      10.0000      24.6023
      94      10.0000      25.6422
      95      10.0000      27.9143
      96      10.0000      31.3930
      97      10.0000      34.9239
      98      10.0000      32.0259
      99      10.0000      26.1425
     100      10.0000      30.5215
     101      10.0000      34.5244
     102      10.0000      28.8406
     103      10.0000      24.8627
     104      10.0000      20.4917
     105      10.0000      23.9862
     106      10.0000      21.0522
     107      10.0000      16.5051
     108      10.0000      15.6093
     109      10.0000      17.1299
     110      10.0000      19.5466
     111      10.0000      18.8197
     112      10.0000      18.3739
     113      10.0000      18.6841
     114      10.0000      19.8240
     115      10.0000      22.1954
     116      10.0000      25.4991
     117      10.0000      30.4539
     118      10.0000      38.5008
     119      10.0000      44.9560
     120      10.0000      44.9300
     121      10.0000      51.0385
     122      10.0000      55.4621
     123      10.0000      59.1462
     124      10.0000      56.7618
     125      10.0000      54.4832
     126      10.0000      53.0995
     127      10.0000      51.5803
     128      10.0000      47.5920
     129      10.0000      53.2989
     130      10.0000      54.1388
     131      10.0000      53.3001
     132      10.0000      53.0083
     133      10.0000      52.3125
     134      10.0000      52.4330
     135      10.0000      58.8862
     136      10.0000      59.8113
     137      10.0000      61.0408
     138      10.0000      64.6258
     139      10.0000      64.1190
     140      10.0000      61.0495
     141      10.0000      63.4515
     142      10.0000      65.9485
     143      10.0000      68.4089
     144      10.0000      70.8689
     145      10.0000      77.9236
     146      10.0000       4.2267
     147      10.0000       8.4481
     148      10.0000      13.0466
     149      10.0000      17.1252
     150      10.0000      20.6680
     151      10.0000      18.5028
     152      10.0000      15.8500
     153      10.0000      13.6811
     154      10.0000      12.9732
     155      10.0000      15.8178
     156      10.0000      16.9780
     157      10.0000      13.6781
     158      10.0000      11.1164
     159      10.0000      11.2322
     160      10.0000      16.1596
     161      10.0000      19.9207
     162      10.0000      22.0115
     163      10.0000      24.0663
     164      10.0000      25.7235
     165      10.0000      27.5843
     166      10.0000      30.4377
     167      10.0000      34.1559
     168      10.0000      37.9501
     169      10.0000      35.5980
     170      10.0000      30.3812
     171      10.0000      36.0375
     172      10.0000      39.6532
     173      10.0000      33.2127
     174      10.0000      29.2197
     175      10.0000      25.1217
     176      10.0000      29.8126
     177      10.0000      27.4844
     178      10.0000      23.1874
     179      10.0000      22.7047
     180      10.0000      23.8661
     181      10.0000      25.3212
     182      10.0000      23.2320
     183      10.0000      21.3900
     184      10.0000      20.1388
     185      10.0000      19.7197
     186      10.0000      20.7740
     187      10.0000      23.0659
     188      10.0000      27.3738
     189      10.0000      34.5766
     190      10.0000      40.3376
     191      10.0000      40.0132
     192      10.0000      45.7382
     193      10.0000      50.4348
     194      10.0000      54.0436
     195      10.0000      51.9285
     196      10.0000      49.9409
     197      10.0000      48.7721
     198      10.0000      47.4561
     199      10.0000      43.4134
     200      10.0000      48.6344
     201      10.0000      49.1074
     202      10.0000      47.9027
     203      10.0000      47.3262
     204      10.0000      46.3708
     205      10.0000      46.4933
     206      10.0000      52.7574
     207      10.0000      53.5773
     208      10.0000      54.7548
     209      10.0000      58.4709
     210      10.0000      58.3497
     211      10.0000      55.8475
     212      10.0000      57.9755
     213      10.0000      60.3438
     214      10.0000      62.7298
     215      10.0000      65.1478
     216      10.0000      72.2314
     217      10.0000       4.2368
     218      10.0000       8.8236
     219      10.0000      12.9039
     220      10.0000      16.6146
     221      10.0000      14.7726
     222      10.0000      12.8240
     223      10.0000      11.5980
     224      10.0000      12.1951
     225      10.0000      16.3048
     226      10.0000      17.5044
     227      10.0000      13.5794
     228      10.0000      10.1472
     229      10.0000       8.9600
     230      10.0000      13.6892
     231      10.0000      17.4187
     232      10.0000      19.7372
     233      10.0000      22.1248
     234      10.0000      24.0975
     235      10.0000      26.2043
     236      10.0000      29.2281
     237      10.0000      32.9763
     238      10.0000      36.8464
     239      10.0000      34.8918
     240      10.0000      30.1751
     241      10.0000      36.5617
     242      10.0000      39.8471
     243      10.0000      33.0328
     244      10.0000      29.2706
     245      10.0000      25.5093
     246      10.0000      30.9879
     247      10.0000      29.2318
     248      10.0000      25.4552
     249      10.0000      24.9045
     250      10.0000      25.6123
     251      10.0000      26.3187
     252      10.0000      23.3910
     253      10.0000      20.7893
     254      10.0000      18.7391
     255      10.0000      17.5249
     256      10.0000      17.9227
     257      10.0000      19.7614
     258      10.0000      23.7631
     259      10.0000      30.6646
     260      10.0000      36.2043
     261      10.0000      35.8186
     262      10.0000      41.5426
     263      10.0000      46.3172
     264      10.0000      49.8396
     265      10.0000      47.7349
     266      10.0000      45.7814
     267      10.0000      44.6659
     268      10.0000      43.4345
     269      10.0000      39.4775
     270      10.0000      44.7532
     271      10.0000      45.0480
     272      10.0000      43.7546
     273      10.0000      43.1331
     274      10.0000      42.1692
     275      10.0000      42.3081
     276      10.0000      48.6040
     277      10.0000      49.4193
     278      10.0000      50.6163
     279      10.0000      54.3637
     280      10.0000      54.2439
     281      10.0000      51.6774
     282      10.0000      53.7683
     283      10.0000      56.1233
     284      10.0000      58.5107
     285      10.0000      60.9434
     286      10.0000      68.0147
     287      10.0000       4.6075
     288      10.0000       8.7224
     289      10.0000      12.5324
     290      10.0000      11.0687
     291      10.0000      10.1862
     292      10.0000      10.3401
     293      10.0000      12.3630
     294      10.0000      17.4023
     295      10.0000      18.7514
     296      10.0000      14.5715
     297      10.0000      10.7612
     298      10.0000       8.4278
     299      10.0000      12.3841
     300      10.0000      15.7743
     301      10.0000      18.1460
     302      10.0000      20.7525
     303      10.0000      22.9366
     304      10.0000      25.1851
     305      10.0000      28.2712
     306      10.0000      31.9585
     307      10.0000      35.8322
     308      10.0000      34.2696
     309      10.0000      30.1562
     310      10.0000      37.1817
     311      10.0000      40.1001
     312      10.0000      33.0592
     313      10.0000      29.6677
     314      10.0000      26.3294
     315      10.0000      32.4544
     316      10.0000      31.2501
     317      10.0000      28.0152
     318      10.0000      27.3336
     319      10.0000      27.5824
     320      10.0000      27.5431
     321      10.0000      23.8932
     322      10.0000      20.6424
     323      10.0000      17.8473
     324      10.0000      15.8225
     325      10.0000      15.4619
     326      10.0000      16.7364
     327      10.0000      20.3141
     328      10.0000      26.8406
     329      10.0000      32.0913
     330      10.0000      31.6038
     331      10.0000      37.3169
     332      10.0000      42.1302
     333      10.0000      45.6039
     334      10.0000      43.5061
     335      10.0000      41.5952
     336      10.0000      40.5613
     337      10.0000      39.4558
     338      10.0000      35.6558
     339      10.0000      41.0744
     340      10.0000      41.1305
     341      10.0000      39.7242
     342      10.0000      39.0396
     343      10.0000      38.0565
     344      10.0000      38.1657
     345      10.0000      44.5158
     346      10.0000      45.3657
     347      10.0000      46.6227
     348      10.0000      50.4342
     349      10.0000      50.3056
     350      10.0000      47.5880
     351      10.0000      49.6310
     352      10.0000      51.9583
     353      10.0000      54.3317
     354      10.0000      56.7652
     355      10.0000      63.8395
     356      10.0000       4.1441
     357      10.0000       8.5390
     358      10.0000       8.2250
     359      10.0000       9.4900
     360      10.0000      11.4322
     361      10.0000      14.5950
     362      10.0000      20.0638
     363      10.0000      21.3245
     364      10.0000      17.0835
     365      10.0000      13.2261
     366      10.0000      10.0951
     367      10.0000      12.4143
     368      10.0000      15.1288
     369      10.0000      17.5709
     370      10.0000      20.4159
     371      10.0000      22.8576
     372      10.0000      25.2729
     373      10.0000      28.4014
     374      10.0000      31.9667
     375      10.0000      35.7994
     376      10.0000      34.7441
     377      10.0000      31.3355
     378      10.0000      38.8779
     379      10.0000      41.3907
     380      10.0000      34.1614
     381      10.0000      31.1387
     382      10.0000      28.2819
     383      10.0000      34.8900
     384      10.0000      34.2043
     385      10.0000      31.4508
     386      10.0000      30.7468
     387      10.0000      30.6506
     388      10.0000      29.9937
     389      10.0000      25.7576
     390      10.0000      21.9669
     391      10.0000      18.5130
     392      10.0000      15.6304
     393      10.0000      14.1963
     394      10.0000      14.4329
     395      10.0000      17.1402
     396      10.0000      22.8962
     397      10.0000      27.6804
     398      10.0000      27.0669
     399      10.0000      32.7557
     400      10.0000      37.6881
     401      10.0000      41.0333
     402      10.0000      38.9613
     403      10.0000      37.1166
     404      10.0000      36.1799
     405      10.0000      35.2237
     406      10.0000      31.5885
     407      10.0000      37.0592
     408      10.0000      36.8213
     409      10.0000      35.2632
     410      10.0000      34.4942
     411      10.0000      33.4860
     412      10.0000      33.6113
     413      10.0000      40.0023
     414      10.0000      40.8481
     415      10.0000      42.1384
     416      10.0000      46.0016
     417      10.0000      45.8870
     418      10.0000      43.0839
     419      10.0000      45.0596
     420      10.0000      47.3599
     421      10.0000      49.7296
     422      10.0000      52.1796
     423      10.0000      59.2392
     424      10.0000       6.3942
     425      10.0000       7.7714
     426      10.0000      11.0346
     427      10.0000      14.0451
     428      10.0000      17.7133
     429      10.0000      23.3442
     430      10.0000      24.5869
     431      10.0000      20.3895
     432      10.0000      16.6092
     433      10.0000      13.1881
     434      10.0000      14.1783
     435      10.0000      16.1840
     436      10.0000      18.6365
     437      10.0000      21.6017
     438      10.0000      24.2011
     439      10.0000      26.6952
     440      10.0000      29.7837
     441      10.0000      33.1754
     442      10.0000      36.9087
     443      10.0000      36.2623
     444      10.0000      33.4671
     445      10.0000      41.3249
     446      10.0000      43.5096
     447      10.0000      36.2266
     448      10.0000      33.5234
     449      10.0000      31.0443
     450      10.0000      37.9109
     451      10.0000      37.5665
     452      10.0000      35.1110
     453      10.0000      34.4015
     454      10.0000      34.0936
     455      10.0000      33.0315
     456      10.0000      28.4606
     457      10.0000      24.3862
     458      10.0000      20.5766
     459      10.0000      17.1951
     460      10.0000      14.9428
     461      10.0000      14.0826
     462      10.0000      15.5490
     463      10.0000      20.0434
     464      10.0000      24.0655
     465      10.0000      23.2224
     466      10.0000      28.7453
     467      10.0000      33.8139
     468      10.0000      37.0470
     469      10.0000      35.0675
     470      10.0000      33.3662
     471      10.0000      32.5912
     472      10.0000      31.8475
     473      10.0000      28.4210
     474      10.0000      33.8201
     475      10.0000      33.2043
     476      10.0000      31.4101
     477      10.0000      30.4800
     478      10.0000      29.3714
     479      10.0000      29.4791
     480      10.0000      35.8704
     481      10.0000      36.7121
     482      10.0000      38.0448
     483      10.0000      42.0040
     484      10.0000      41.9871
     485      10.0000      39.1984
     486      10.0000      41.0409
     487      10.0000      43.2764
     488      10.0000      45.6143
     489      10.0000      48.0584
     490      10.0000      55.1200
     491      10.0000       5.7260
     492      10.0000       9.7337
     493      10.0000      13.3707
     494      10.0000      17.3233
     495      10.0000      22.4181
     496      10.0000      23.5437
     497      10.0000      19.9316
     498      10.0000      16.9693
     499      10.0000      14.3565
     500      10.0000      14.6370
     501      10.0000      15.1196
     502      10.0000      16.0487
     503      10.0000      18.2026
     504      10.0000      20.2894
     505      10.0000      22.4364
     506      10.0000      25.2308
     507      10.0000      28.3139
     508      10.0000      31.8781
     509      10.0000      31.7880
     510      10.0000      29.8337
     511      10.0000      38.0143
     512      10.0000      39.6597
     513      10.0000      32.4271
     514      10.0000      30.4763
     515      10.0000      28.7399
     516      10.0000      35.9902
     517      10.0000      36.3876
     518      10.0000      34.8624
     519      10.0000      33.8826
     520      10.0000      32.9658
     521      10.0000      31.0648
     522      10.0000      25.9600
     523      10.0000      21.5064
     524      10.0000      17.3200
     525      10.0000      13.4752
     526      10.0000      10.6002
     527      10.0000       9.2557
     528      10.0000      10.3499
     529      10.0000      15.5494
     530      10.0000      20.2543
     531      10.0000      19.7732
     532      10.0000      26.1147
     533      10.0000      30.9211
     534      10.0000      34.0264
     535      10.0000      31.5930
     536      10.0000      29.4624
     537      10.0000      28.4778
     538      10.0000      27.6653
     539      10.0000      24.6251
     540      10.0000      31.1501
     541      10.0000      30.5850
     542      10.0000      29.1631
     543      10.0000      28.6147
     544      10.0000      27.9805
     545      10.0000      28.1201
     546      10.0000      34.8099
     547      10.0000      35.8091
     548      10.0000      37.2650
     549      10.0000      41.0320
     550      10.0000      40.4023
     551      10.0000      36.4917
     552      10.0000      38.6694
     553      10.0000      41.0610
     554      10.0000      43.5048
     555      10.0000      46.0376
     556      10.0000      52.9916
     557      10.0000       4.9815
     558      10.0000       9.1536
     559      10.0000      13.3590
     560      10.0000      19.1854
     561      10.0000      22.4612
     562      10.0000      19.3010
     563      10.0000      16.6991
     564      10.0000      15.0704
     565      10.0000      17.2255
     566      10.0000      18.4443
     567      10.0000      18.9439
     568      10.0000      20.4277
     569      10.0000      21.6285
     570      10.0000      22.9191
     571      10.0000      25.0582
     572      10.0000      27.9009
     573      10.0000      31.2103
     574      10.0000      30.0157
     575      10.0000      27.8810
     576      10.0000      36.0940
     577      10.0000      37.9723
     578      10.0000      31.5631
     579      10.0000      30.1644
     580      10.0000      28.1337
     581      10.0000      35.2129
     582      10.0000      35.1976
     583      10.0000      33.4737
     584      10.0000      31.7505
     585      10.0000      30.5075
     586      10.0000      28.2976
     587      10.0000      23.4406
     588      10.0000      19.4624
     589      10.0000      15.7282
     590      10.0000      12.9717
     591      10.0000      12.0011
     592      10.0000      12.7609
     593      10.0000      15.1134
     594      10.0000      20.7354
     595      10.0000      24.8036
     596      10.0000      23.6147
     597      10.0000      28.9473
     598      10.0000      32.9305
     599      10.0000      37.0660
     600      10.0000      34.9474
     601      10.0000      33.2252
     602      10.0000      32.7154
     603      10.0000      32.3487
     604      10.0000      29.8256
     605      10.0000      36.5964
     606      10.0000      35.6719
     607      10.0000      33.9080
     608      10.0000      32.9434
     609      10.0000      31.8000
     610      10.0000      31.0776
     611      10.0000      37.6547
     612      10.0000      39.1490
     613      10.0000      41.0540
     614      10.0000      45.3345
     615      10.0000      45.0607
     616      10.0000      40.9708
     617      10.0000      42.7794
     618      10.0000      44.8162
     619      10.0000      46.8903
     620      10.0000      49.0638
     621      10.0000      56.3164
     622      10.0000       4.2407
     623      10.0000       8.4422
     624      10.0000      14.3775
     625      10.0000      18.7202
     626      10.0000      16.0837
     627      10.0000      14.1380
     628      10.0000      13.7863
     629      10.0000      17.1778
     630      10.0000      18.6845
     631      10.0000      18.6316
     632      10.0000      19.4967
     633      10.0000      20.0360
     634      10.0000      20.7990
     635      10.0000      22.6454
     636      10.0000      25.5240
     637      10.0000      28.8223
     638      10.0000      26.9033
     639      10.0000      24.1501
     640      10.0000      32.1302
     641      10.0000      34.3318
     642      10.0000      28.2658
     643      10.0000      26.9262
     644      10.0000      24.6117
     645      10.0000      31.4361
     646      10.0000      31.1469
     647      10.0000      29.3735
     648      10.0000      27.2640
     649      10.0000      25.8884
     650      10.0000      23.6964
     651      10.0000      19.0982
     652      10.0000      15.5075
     653      10.0000      12.3070
     654      10.0000      10.6837
     655      10.0000      11.4805
     656      10.0000      13.9229
     657      10.0000      17.5792
     658      10.0000      24.3905
     659      10.0000      29.1823
     660      10.0000      28.2442
     661      10.0000      33.6839
     662      10.0000      37.4018
     663      10.0000      41.6786
     664      10.0000      39.4618
     665      10.0000      37.5952
     666      10.0000      36.9344
     667      10.0000      36.3745
     668      10.0000      33.7309
     669      10.0000      40.6679
     670      10.0000      40.0970
     671      10.0000      38.5777
     672      10.0000      37.7779
     673      10.0000      36.7404
     674      10.0000      36.0038
     675      10.0000      42.5750
     676      10.0000      44.1173
     677      10.0000      46.0224
     678      10.0000      50.2357
     679      10.0000      49.8319
     680      10.0000      45.6021
     681      10.0000      47.5462
     682      10.0000      49.6309
     683      10.0000      51.7109
     684      10.0000      53.8601
     685      10.0000      61.1101
     686      10.0000       4.2094
     687      10.0000      10.3374
     688      10.0000      15.5687
     689      10.0000      13.4413
     690      10.0000      12.1938
     691      10.0000      13.0801
     692      10.0000      17.3496
     693      10.0000      19.1217
     694      10.0000      18.7856
     695      10.0000      19.2372
     696      10.0000      19.3351
     697      10.0000      19.7640
     698      10.0000      21.4549
     699      10.0000      24.4231
     700      10.0000      27.7412
     701      10.0000      25.2496
     702      10.0000      21.7159
     703      10.0000      29.2695
     704      10.0000      31.8627
     705      10.0000      26.0227
     706      10.0000      24.4907
     707      10.0000      21.8008
     708      10.0000      28.2569
     709      10.0000      27.6147
     710      10.0000      25.6682
     711      10.0000      23.3131
     712      10.0000      21.9725
     713      10.0000      20.0686
     714      10.0000      15.8868
     715      10.0000      12.8352
     716      10.0000      10.4715
     717      10.0000      10.2002
     718      10.0000      12.3780
     719      10.0000      15.7667
     720      10.0000      20.1530
     721      10.0000      27.6416
     722      10.0000      32.9829
     723      10.0000      32.2846
     724      10.0000      37.8879
     725      10.0000      41.5678
     726      10.0000      45.8250
     727      10.0000      43.5250
     728      10.0000      41.5248
     729      10.0000      40.6962
     730      10.0000      39.9251
     731      10.0000      37.0758
     732      10.0000      43.9874
     733      10.0000      43.7510
     734      10.0000      42.4383
     735      10.0000      41.7879
     736      10.0000      40.8554
     737      10.0000      40.2211
     738      10.0000      46.7969
     739      10.0000      48.2935
     740      10.0000      50.1252
     741      10.0000      54.2325
     742      10.0000      53.7301
     743      10.0000      49.5225
     744      10.0000      51.5998
     745      10.0000      53.7645
     746      10.0000      55.8986
     747      10.0000      58.0783
     748      10.0000      65.3014
     749      10.0000       6.5031
     750      10.0000      13.1683
     751      10.0000      11.9797
     752      10.0000      11.8215
     753      10.0000      13.9907
     754      10.0000      18.7533
     755      10.0000      20.6308
     756      10.0000      19.9797
     757      10.0000      19.9518
     758      10.0000      19.5336
     759      10.0000      19.5209
     760      10.0000      20.9072
     761      10.0000      23.8288
     762      10.0000      27.0503
     763      10.0000      23.9649
     764      10.0000      19.6799
     765      10.0000      26.5981
     766      10.0000      29.5885
     767      10.0000      24.1708
     768      10.0000      22.5488
     769      10.0000      19.5185
     770      10.0000      25.4076
     771      10.0000      24.3674
     772      10.0000      22.2835
     773      10.0000      19.5502
     774      10.0000      18.1873
     775      10.0000      16.6010
     776      10.0000      13.0973
     777      10.0000      11.0193
     778      10.0000      10.0532
     779      10.0000      11.3336
     780      10.0000      14.5044
     781      10.0000      18.4405
     782      10.0000      23.2291
     783      10.0000      31.1307
     784      10.0000      36.8545
     785      10.0000      36.3311
     786      10.0000      42.0404
     787      10.0000      45.6463
     788      10.0000      49.9110
     789      10.0000      47.5424
     790      10.0000      45.4381
     791      10.0000      44.4859
     792      10.0000      43.5603
     793      10.0000      40.5902
     794      10.0000      47.4971
     795      10.0000      47.5252
     796      10.0000      46.3840
     797      10.0000      45.8535
     798      10.0000      45.0050
     799      10.0000      44.4266
     800      10.0000      51.0061
     801      10.0000      52.4862
     802      10.0000      54.2755
     803      10.0000      58.3025
     804      10.0000      57.7086
     805      10.0000      53.4789
     806      10.0000      55.6627